REMARK SMILES Cc1sc2c(c1C)C(c1ccc(Cl)cc1)=N[C@@H](CC(=O)OC(C)(C)C)c1[nH]nc(C)[n+]1-2
REMARK SMILES IDX 20 1 19 2 18 3 17 4 29 5 28 6 31 7 27 8 26 9 4 10 3 11 5 12
REMARK SMILES IDX 16 13 2 14 8 15 6 16 30 17 1 19 7 20 9 21 10 22 15 23 11 24
REMARK SMILES IDX 14 25 12 26 13 27 21 28 22 29 23 30 24 31 25 32
REMARK H PARENT 27 18
ROOT
ATOM      1  O   UNL     1      32.109  13.864  -4.714  1.00  0.00    -0.252 OA
ATOM      2  C   UNL     1      31.475  13.972  -3.665  1.00  0.00     0.309 C 
ENDROOT
BRANCH   2   3
ATOM      3  C   UNL     1      31.898  14.964  -2.576  1.00  0.00     0.161 C 
BRANCH   3   4
ATOM      4  C   UNL     1      30.646  15.463  -1.866  1.00  0.00     0.217 C 
ATOM      5  C   UNL     1      30.534  18.050   0.671  1.00  0.00     0.280 A 
ATOM      6  N   UNL     1      31.817  18.128   0.283  1.00  0.00     0.038 NA
ATOM      7  N   UNL     1      29.932  17.088  -0.061  1.00  0.00    -0.186 N 
ATOM      8  N   UNL     1      32.044  17.250  -0.625  1.00  0.00    -0.122 N 
ATOM      9  C   UNL     1      30.894  16.581  -0.833  1.00  0.00     0.264 A 
ATOM     10  C   UNL     1      28.660  16.602  -0.030  1.00  0.00     0.171 A 
ATOM     11  S   UNL     1      27.810  16.331   1.456  1.00  0.00    -0.106 S 
ATOM     12  C   UNL     1      27.931  16.125  -1.137  1.00  0.00     0.055 A 
ATOM     13  N   UNL     1      29.662  16.042  -2.828  1.00  0.00    -0.269 NA
ATOM     14  C   UNL     1      26.460  15.625   0.646  1.00  0.00     0.009 A 
ATOM     15  C   UNL     1      28.375  16.220  -2.489  1.00  0.00     0.078 C 
ATOM     16  C   UNL     1      26.696  15.557  -0.722  1.00  0.00    -0.024 A 
ATOM     17  C   UNL     1      29.899  18.962   1.724  1.00  0.00     0.133 C 
ATOM     18  H   UNL     1      32.940  17.087  -1.106  1.00  0.00     0.310 HD
ATOM     19  C   UNL     1      25.204  15.116   1.393  1.00  0.00     0.057 C 
ATOM     20  C   UNL     1      25.682  14.930  -1.694  1.00  0.00     0.046 C 
BRANCH  15  21
ATOM     21  C   UNL     1      27.522  16.765  -3.512  1.00  0.00     0.001 A 
ATOM     22  C   UNL     1      26.351  17.447  -3.210  1.00  0.00     0.012 A 
ATOM     23  C   UNL     1      27.857  16.609  -4.867  1.00  0.00     0.012 A 
ATOM     24  C   UNL     1      25.532  17.964  -4.219  1.00  0.00     0.021 A 
ATOM     25  C   UNL     1      27.032  17.110  -5.868  1.00  0.00     0.021 A 
ATOM     26  C   UNL     1      25.880  17.822  -5.542  1.00  0.00     0.041 A 
ATOM     27  Cl  UNL     1      24.824  18.476  -6.770  1.00  0.00    -0.084 Cl
ENDBRANCH  15  21
ENDBRANCH   3   4
ENDBRANCH   2   3
BRANCH   2  28
ATOM     28  O   UNL     1      30.400  13.247  -3.384  1.00  0.00    -0.460 OA
BRANCH  28  29
ATOM     29  C   UNL     1      29.731  12.302  -4.299  1.00  0.00     0.104 C 
ATOM     30  C   UNL     1      29.233  13.118  -5.465  1.00  0.00     0.056 C 
ATOM     31  C   UNL     1      30.649  11.124  -4.687  1.00  0.00     0.056 C 
ATOM     32  C   UNL     1      28.543  11.742  -3.510  1.00  0.00     0.056 C 
ENDBRANCH  28  29
ENDBRANCH   2  28
TORSDOF 5
