REMARK SMILES O=C(c1cc(Cc2n[nH]c(=O)c3ccccc23)ccc1F)N1CCN(C(=O)C2CC2)CC1
REMARK SMILES IDX 3 1 4 2 20 3 21 4 19 5 18 6 5 7 2 8 26 9 25 10 27 11 24 12
REMARK SMILES IDX 31 13 23 14 32 15 22 16 1 17 28 18 29 19 30 20 6 21 7 22
REMARK SMILES IDX 17 23 8 24 12 25 16 26 9 27 13 28 10 29 15 30 14 31 11 32
REMARK H PARENT 9 33
ROOT
ATOM      1  C   UNL     1      -8.299   5.760  26.259  1.00  0.00     0.076 A 
ATOM      2  C   UNL     1      -8.980   6.850  25.708  1.00  0.00     0.021 A 
ATOM      3  C   UNL     1      -7.058   5.447  25.721  1.00  0.00     0.135 A 
ATOM      4  F   UNL     1      -6.382   4.374  26.197  1.00  0.00    -0.206 F 
ATOM      5  C   UNL     1      -6.478   6.180  24.716  1.00  0.00     0.040 A 
ATOM      6  C   UNL     1      -7.175   7.249  24.186  1.00  0.00     0.007 A 
ATOM      7  C   UNL     1      -8.441   7.578  24.650  1.00  0.00    -0.041 A 
ENDROOT
BRANCH   1   8
ATOM      8  C   UNL     1      -8.910   5.041  27.424  1.00  0.00     0.256 C 
ATOM      9  C   UNL     1     -10.658   0.118  27.061  1.00  0.00     0.225 C 
ATOM     10  N   UNL     1      -9.617   0.979  27.164  1.00  0.00    -0.339 N 
ATOM     11  O   UNL     1     -11.284  -0.236  28.046  1.00  0.00    -0.275 OA
ATOM     12  C   UNL     1      -9.297   1.639  28.427  1.00  0.00     0.141 C 
ATOM     13  C   UNL     1      -8.869   1.638  26.087  1.00  0.00     0.141 C 
ATOM     14  C   UNL     1      -9.867   3.030  28.394  1.00  0.00     0.141 C 
ATOM     15  C   UNL     1      -9.354   3.071  25.947  1.00  0.00     0.141 C 
ATOM     16  N   UNL     1      -9.321   3.768  27.247  1.00  0.00    -0.335 N 
ATOM     17  O   UNL     1      -8.905   5.575  28.514  1.00  0.00    -0.269 OA
BRANCH   9  18
ATOM     18  C   UNL     1     -11.058  -0.357  25.677  1.00  0.00     0.079 C 
ATOM     19  C   UNL     1     -11.622  -1.747  25.544  1.00  0.00     0.014 C 
ATOM     20  C   UNL     1     -12.532  -0.581  25.447  1.00  0.00     0.014 C 
ENDBRANCH   9  18
ENDBRANCH   1   8
BRANCH   7  21
ATOM     21  C   UNL     1      -9.207   8.726  24.045  1.00  0.00     0.094 C 
BRANCH  21  22
ATOM     22  C   UNL     1      -9.779   9.635  25.106  1.00  0.00     0.073 A 
ATOM     23  C   UNL     1      -8.920  10.600  25.828  1.00  0.00     0.011 A 
ATOM     24  N   UNL     1     -11.047   9.540  25.310  1.00  0.00    -0.177 NA
ATOM     25  C   UNL     1      -9.541  11.425  26.783  1.00  0.00     0.050 A 
ATOM     26  C   UNL     1      -7.570  10.793  25.510  1.00  0.00     0.011 A 
ATOM     27  N   UNL     1     -11.601  10.319  26.302  1.00  0.00    -0.243 N 
ATOM     28  C   UNL     1      -8.790  12.404  27.438  1.00  0.00     0.014 A 
ATOM     29  C   UNL     1     -10.986  11.268  27.035  1.00  0.00     0.272 A 
ATOM     30  C   UNL     1      -6.811  11.679  26.265  1.00  0.00     0.001 A 
ATOM     31  C   UNL     1      -7.415  12.464  27.239  1.00  0.00     0.001 A 
ATOM     32  O   UNL     1     -11.621  11.920  27.854  1.00  0.00    -0.267 OA
ATOM     33  H   UNL     1     -12.598  10.158  26.506  1.00  0.00     0.194 HD
ENDBRANCH  21  22
ENDBRANCH   7  21
TORSDOF 4
