REMARK SMILES CNC(=O)c1ccccc1Sc1ccc2c(C=Cc3ccccn3)n[nH]c2c1
REMARK SMILES IDX 11 1 10 2 5 3 6 4 7 5 9 6 8 7 3 8 4 9 2 10 1 11 12 13 13 14
REMARK SMILES IDX 28 15 14 16 27 17 15 18 26 19 16 20 25 21 17 23 18 24 19 25
REMARK SMILES IDX 24 26 20 27 23 28 21 29 22 30
REMARK H PARENT 2 12 26 22
REMARK INDEX MAP 11 1 9 2 5 3 6 4 7 5 10 6 8 7 2 8 1 9 3 10 4 11 29 12 12 13
REMARK INDEX MAP 13 14 15 15 14 16 16 17 20 18 17 19 19 20 18 21 40 22 21 23
REMARK INDEX MAP 22 24 23 25 24 26 28 27 25 28 27 29 26 30
ROOT
ATOM      1  S   UNL     1      22.510  23.347  37.788  1.00  0.00    -0.089 SA
ENDROOT
BRANCH   1   2
ATOM      2  C   UNL     1      24.018  23.298  38.674  1.00  0.00     0.025 A 
ATOM      3  C   UNL     1      25.292  23.032  38.066  1.00  0.00     0.053 A 
ATOM      4  C   UNL     1      26.456  22.997  38.889  1.00  0.00     0.015 A 
ATOM      5  C   UNL     1      26.409  23.200  40.291  1.00  0.00     0.001 A 
ATOM      6  C   UNL     1      23.982  23.492  40.094  1.00  0.00     0.016 A 
ATOM      7  C   UNL     1      25.156  23.462  40.885  1.00  0.00     0.001 A 
BRANCH   3   8
ATOM      8  C   UNL     1      25.499  22.806  36.610  1.00  0.00     0.252 C 
ATOM      9  O   UNL     1      24.831  23.470  35.794  1.00  0.00    -0.269 OA
ATOM     10  N   UNL     1      26.415  21.916  36.184  1.00  0.00    -0.355 N 
ATOM     11  C   UNL     1      26.782  21.727  34.783  1.00  0.00     0.143 C 
ATOM     12  H   UNL     1      26.886  21.332  36.890  1.00  0.00     0.163 HD
ENDBRANCH   3   8
ENDBRANCH   1   2
BRANCH   1  13
ATOM     13  C   UNL     1      21.489  24.548  38.526  1.00  0.00     0.014 A 
ATOM     14  C   UNL     1      20.123  24.259  38.796  1.00  0.00     0.016 A 
ATOM     15  C   UNL     1      22.020  25.832  38.865  1.00  0.00     0.043 A 
ATOM     16  C   UNL     1      19.257  25.239  39.392  1.00  0.00     0.014 A 
ATOM     17  C   UNL     1      21.178  26.775  39.450  1.00  0.00     0.067 A 
ATOM     18  C   UNL     1      19.844  26.504  39.711  1.00  0.00     0.027 A 
ATOM     19  N   UNL     1      21.430  28.076  39.855  1.00  0.00    -0.277 N 
ATOM     20  C   UNL     1      19.371  27.755  40.274  1.00  0.00     0.093 A 
ATOM     21  N   UNL     1      20.339  28.597  40.306  1.00  0.00    -0.175 NA
ATOM     22  H   UNL     1      22.342  28.551  39.804  1.00  0.00     0.190 HD
BRANCH  20  23
ATOM     23  C   UNL     1      18.018  28.134  40.713  1.00  0.00     0.033 C 
ATOM     24  C   UNL     1      16.885  27.325  40.808  1.00  0.00     0.030 C 
BRANCH  24  25
ATOM     25  C   UNL     1      15.547  27.825  41.273  1.00  0.00     0.063 A 
ATOM     26  N   UNL     1      14.576  26.890  41.337  1.00  0.00    -0.257 NA
ATOM     27  C   UNL     1      15.312  29.179  41.616  1.00  0.00     0.028 A 
ATOM     28  C   UNL     1      13.319  27.223  41.745  1.00  0.00     0.111 A 
ATOM     29  C   UNL     1      14.004  29.530  42.041  1.00  0.00     0.004 A 
ATOM     30  C   UNL     1      13.002  28.545  42.103  1.00  0.00     0.020 A 
ENDBRANCH  24  25
ENDBRANCH  20  23
ENDBRANCH   1  13
TORSDOF 5
